<?xml version="1.0"?>
<VTKFile type="UnstructuredGrid"  version="0.1"  >
<UnstructuredGrid>
<Piece  NumberOfPoints="286" NumberOfCells="1180">
<Points>
<DataArray  type="Float64"  NumberOfComponents="3"  format="ascii">1.516460192356248 1.170947205644076 0.305814859508098  0.7161342898998206 0.6080210507323239 0.08930318193683839  0.7070060000922326 0.878320293217125 0.9923779183246267  0.6495999211559385 1.787884028072424 0.4295563749878984  -1.547433651313314 -2.114922704993831 -1.433341656675125  -0.9374601513964698 -2.037122405577342 -1.982092793154734  -1.08107606492097 -1.709641252216841 -0.7065416244555902  -0.70211047891185 -2.568941335874454 -1.343024619999101  1.617904347553814 0.1980807678025505 0.9922635260025282  1.348415231751397 -0.2119964399355226 1.763392414857621  2.312178306823322 -0.3425931167411892 1.863364752355736  2.264186103512359 0.340254912161203 1.922077455915105  -1.14429851444097 -1.314709726578922 2.418571467872964  -1.78462541592108 -1.406747100396028 1.917114045447723  -1.103766105693949 -1.219850601882642 1.470113316526954  -1.271842035208987 -1.798444440569087 2.002218546911119  -0.0865780989945128 1.684626179467839 -0.9599316504526811  0.08078014650401144 1.234435038879287 -1.901316411328882  -2.775557561562891e-16 1.91093069990633 -2.293798586453503  0.4555289565963132 2.263983862402458 -1.903425584389929  0.4960920383671522 -0.8061506289784267 -1.209480601494112  0.7856744814632967 -1.668387584892099 -0.9995755619624258  1.530622325361054 -0.8301153412792981 -0.7129483957874498  0.2380495587524185 -1.357812042845754 -0.5819892180667279  1.736946309087947 -0.6163748176092524 1.149656689463456  2.735139101456124 0.3401753448675294 1.147367556484188  1.324318035141213 -0.5996984544867918 -1.609913342521286  1.431919423414793 -1.338819642132215 -1.30584466982035  0.9358949147140304 -1.623400782460096 -2.318989595020758  1.54348726628258 -1.54348726628258 -2.057983021710106  0.000442904708021663 0.0009329069509143029 0.0003154720728970606  0.1137182741822782 -0.1259849301093003 0.9235214020883672  0.1512190077493569 -0.8932389467125894 0.3839256229190408  1.006795815562741 -0.05245892144038256 0.493996059854816  0.8608165995961042 0.2797761336435558 2.849965253475376  1.763860371849299 0.3057863540205313 2.391670837948221  1.008411867441098 -0.5049761445099297 2.762475784610301  1.515633766957841 0.1640072628108429 -0.1394790900689132  -2.20110422687145 0.430221387137564 -0.3581502794933753  -2.714126184951233 1.236362503539646 -0.2081406201711715  -2.761025457385723 0.8039560611540737 -0.8128589944400032  -2.938242884000215 0.2763363988562434 -0.4831519232265036  1.641186939381775 -1.446244966980021 -0.1501867452267235  2.148731443538766 -1.653365318228025 -1.220463959023457  1.510256733294224 -2.414840879100497 -0.9165940932297704  -2.285161374063362 1.687322422824208 -0.8917264664218465  -1.774911902084977 1.055075764455975 -0.1855814099215746  2.241289957579 -0.5355940404552935 -0.2253874552857778  2.025814468679079 -0.0969079963162148 -0.8224399612505313  2.736078954023665 -0.9020230496134148 -0.8077418029842995  -1.050751286200228 0.4256889351784452 -1.57903760365084  -0.4124635734769965 0.4851855806601536 -2.100625166401128  -1.117844570360782 0.0468229099052629 -2.776357287545384  -1.615401837502811 0.5969226145438945 -2.430697211628872  2.662369026304833 1.25332291602785 -0.5295695406918157  2.154218930622432 2.026222218269535 -0.376621342760617  1.810295409404456 0.7949519755157111 -0.843436653237767  2.161986366632575 0.7330518261256181 -0.05957112565069439  -0.6424497301800163 0.2407965979630466 -0.703898797281961  -1.066760919776155 1.13504853441761 -0.8240356457085779  -1.003450845296583 0.7762156209886881 -0.08179785125550841  0.01770209521619609 0.8449752176924994 -0.4692221573538077  -1.776322868409658 -0.8109348772677123 -2.245181354871418  -0.8476235584756686 -1.213958415842885 -1.799776334708596  -0.8894462928560231 -0.2529520120676044 -2.04383998351932  -1.470099814515447 -1.120071762141486 -1.261457465803977  0.8017419360352422 -1.460672462093602 -0.08964866941666183  0.3233714526972215 -1.763234089565328 0.8127335108510017  -0.5305548403561018 -1.437295575857628 -0.07282407799752458  -1.454310236050046 -1.712689759547581 0.0310638195944882  -1.382389331838896 -2.518605259006887 0.809120158099301  -2.256630174726133 -1.926940203653285 0.3576737003028397  -1.599857538843885 -2.52187505070475 0.1171450499062869  -0.008924428734070844 -1.142532700208131 -1.901712566541339  0.6277268559876249 -0.6507597981599368 -2.028807021546801  -0.4423258684646914 2.653955210788149 -1.326977605394074  -0.1234635349853064 2.9101884673601 -0.6791709961789634  0.4423258684646914 2.653955210788149 -1.326977605394074  1.032561802257681 0.53349712992138 -0.6024952359116621  0.1980123670444062 1.052670448445484 0.4430131436054227  -0.3034932871281223 1.351344725228924 1.222914425331556  -0.005268048063919728 0.6584192444426767 1.136694118252678  0.8493095469473447 1.27457304321876 -0.5638903406024096  -0.3242858561728444 1.495304251653566 0.09293596197926712  -0.4548935535076054 0.6548146711112823 0.5248592807383882  -1.175081657836372 1.754066638832522 -0.1496791050063195  -2.253525051326811 1.950742597412578 -0.1268929380796296  1.891778154338186 0.9317952765181209 0.9515283990292119  1.088416366490452 0.6952670328042815 1.783620408541168  -0.3072019569976657 1.493826374037798 2.564766995927508  -0.496803185843985 2.070803051113538 2.084899926479723  0.4319354699954873 1.695270867097593 2.41899270541699  -1.057912086181713 1.580309658039858 2.293936166214992  -0.07403807089667314 0.7977862472120658 1.957320061139192  1.761099222545929 -0.7671011792915875 0.3324370056103696  2.577496404639867 -1.229057843440955 0.852064471897254  2.773383526604813 -0.4905090249594375 0.9883982128036488  2.33956153690572 0.939887907975314 1.595289025756494  2.653566637479825 1.077182088838567 0.835148956394841  2.202126820215712 1.710511061019083 1.041085757780641  -0.6236571328299669 -2.163685445152777 -0.2942759375469185  1.774716678482194 -1.383123854452283 1.944345296194113  2.123260782968774 -1.57628349894398 1.376961942749666  1.182602382527289 -1.269358547590675 1.458601021197493  -1.921524882898601 1.709452217894006 -1.503247915132152  -1.694361225548292 2.362243923237846 -0.6678930020572995  -1.883894639909809 1.183575888427608 -1.981492370080407  -1.371109159064452 1.778595737261484 -1.949276403521415  1.258912502178672 1.823518920657627 -0.1157777884063405  1.921255181407404 2.265694612895268 0.3263882507514028  1.571070453117502 2.490784331508749 -0.4724783657459247  1.255849168552348 -1.562401875986537 0.7456845455629666  -0.1066450211201689 -2.946998338069204 0.490963391030905  0.6542684317937396 -2.193119076486026 0.215300301577087  0.45780635120147 -2.956534284687644 0.04261497193332069  0.1194553538887732 -2.094290523491919 -0.4625595734322043  1.779767622206757 2.158488994381587 -1.022594591541412  2.242392801464321 1.66602777847793 -1.030497482999064  1.444773158403668 1.455986834111412 -1.031132892661126  -1.231986188376515 0.5002735184239524 2.677587586900495  -0.6726988722561477 0.242189217990576 2.174382615140296  -1.348553418384518 0.744353309839478 1.518681691429618  -1.559422284249867 0.9571394972166385 2.361322119404671  -1.220971697436652 2.350078892154047 -1.357316651502079  -0.8282952159376991 -0.5130105636873635 0.01838541413580974  -2.168701635551833 -0.2622258898569783 0.2694294756384366  -1.543495425796161 -1.00513696308802 -0.4444619493495945  -1.504993820686426 0.1389199833311745 -0.2430277581117126  -1.472995419677089 -0.6677918677573028 0.733700506691583  -0.5054618121084626 -1.202422832084092 1.942332075501077  -0.3366915767038999 -1.060623436116682 2.769524486516642  -0.2237860765886014 -1.708696359976515 2.437920822533075  0.5689597205129957 -1.172926531460766 2.685022576464206  -0.3440905781601715 -0.459001848461012 1.992798670125021  0.4711087764379027 0.04419146898360904 1.774732690781454  -0.6062738379110356 0.264610371128632 1.382101062652985  -0.6691127711253663 2.171963835012051 -1.930421802841749  -0.6319574310302545 1.336765628038431 -1.586270870591024  0.8083090809144093 -2.753718631650101 -0.8381276499022217  0.9238292289731098 -0.7022924382763959 0.9992951668060304  2.407120060909423 -1.676595936749067 -0.5367799941549718  -0.7441715921502653 2.112771190493739 -0.7407874609138503  -2.10605006770503 1.996749764726239 0.6677741879136359  -0.9059593076036628 1.792355241106682 0.7158343887207884  -1.562850255567586 2.304490117502182 1.063394304899283  -1.785530452997518 1.886908108965486 1.446705641096718  2.555440796188351 -0.178213524204162 -1.534958056994895  1.902779293341694 0.390912407140621 -2.275301666404597  1.868712401948503 -0.2827099611831285 -2.311397662141339  1.801624560996109 0.02087962492745507 -1.593976734404183  -2.20137498241829 -1.576408138252628 1.233386105034692  -0.4154480159438659 -2.076308008297629 0.4954592679056388  -0.8193264268481899 -2.838704727718605 0.4825789537952334  -2.238679959383659 -0.5936412301325334 -0.4642382155602429  -2.665531295264622 -1.306333724224122 -0.4092423191275967  -1.995285821895698 -1.130214181263881 0.2578730945584768  -2.759228688362506 -0.9727153524468688 0.5813213935360522  0.3528571510459143 0.03316756712975007 -0.8524492944963871  0.8084657053361397 -0.4837951125749654 -0.1835793965886015  2.928222516619372 0.5057289901151929 0.3398521102578585  2.511498791503297 1.611593176952826 0.1386480351718253  -1.128467472819096 0.1122451168876665 0.5352445337561214  -0.6031095813978788 -0.4319277106605359 0.774863631421999  -2.161864824819804 -1.027421386138124 -1.772024339539213  -1.628993450281932 -1.409217790647711 -2.064811666641918  -2.159373517643998 -1.57683848089294 -1.309877756094082  0.4597733836591311 -1.168848955115765 1.717261890729906  -0.09403539621357362 2.022551720696981 0.7545962630008362  2.425377663664394 -0.9385211251366621 1.486456092066748  -0.8368952635947973 2.8499251764
[...]
<PointData  Vectors="f_9"> 
<DataArray  type="Float64"  Name="f_9"  NumberOfComponents="3" format="ascii">-2.0663666485340113e-01 -1.5955619970330220e-01 -9.6532021002074908e-01  1.4417053434030339e-01 1.2240542173520884e-01 9.8195303846867188e-01  -2.4454045484407028e-01 -3.0379493805437735e-01 9.2081952713720849e-01  -1.0324091616414126e-01 -2.8414841049391493e-01 -9.5320564100479932e-01  -5.4862772702656037e-01 -7.4982551626227978e-01 3.6982335283169382e-01  -2.8853470055969122e-01 -6.2699252061127109e-01 -7.2362152101112498e-01  -3.8199098458934030e-02 -6.0409028228425858e-02 -9.9744251873750700e-01  -2.2975583570566319e-01 -8.4065012733809552e-01 4.9042799610711052e-01  -9.1097160053983395e-01 -1.1153066888909312e-01 -3.9710408321628299e-01  -9.0031639547453413e-01 1.4154680706793757e-01 4.1157610407871625e-01  8.6295400915485887e-01 -1.2786302108631381e-01 -4.8883680909096500e-01  7.8063728575077196e-01 1.1731176632558947e-01 -6.1387570205802888e-01  4.7440100324572271e-01 5.4504974479552670e-01 -6.9127741451445013e-01  -5.9300455522263473e-01 -4.6744119586043631e-01 -6.5562514129475713e-01  6.0243877561888548e-01 6.6579803388156189e-01 -4.4020506552090560e-01  -3.4336684037276749e-01 -4.8553685760410176e-01 -8.0396092743388758e-01  4.2733635607853655e-02 -8.3150591344575375e-01 -5.5386979723801311e-01  -4.4261193987686388e-02 -6.7637372653588912e-01 7.3522753536489560e-01  4.4413474510911484e-17 -2.7618213399234320e-01 -9.6110531621848572e-01  1.6292029900111915e-01 8.0971565573423832e-01 -5.6375307806898778e-01  8.7567305304447104e-02 -1.4229705939542064e-01 9.8594295673184551e-01  -2.0039038305179652e-01 4.2553097383627808e-01 -8.8247780974158385e-01  -6.3845808724773789e-01 3.4626037018188999e-01 -6.8736818872381678e-01  -1.6026115142616490e-01 9.1411436571109805e-01 3.7243964577385769e-01  -4.4603344535488548e-01 1.5827995493574223e-01 -8.8090954217240136e-01  6.8787342283809794e-01 8.5552350414128134e-02 7.2077107981079380e-01  -9.0136293815176505e-01 4.0816929664757484e-01 1.4471585607887427e-01  -9.0835077237336623e-02 8.4929210129664562e-02 -9.9223788378091993e-01  -1.9279073299022850e-01 3.3441428291447095e-01 -9.2249597324643673e-01  3.8416225125591424e-01 -3.8416225125591419e-01 -8.3954674046176592e-01  1.3914237359985348e-03 2.9308084819831969e-03 -9.9999473713696552e-01  3.4056839355983731e-01 -3.7730510393868877e-01 -8.6119337424871478e-01  4.8604879861089710e-02 -2.8710525441466123e-01 9.5666511305742807e-01  -2.5602790147523469e-02 1.3340289423559250e-03 9.9967130473143162e-01  2.7923917989061409e-01 9.0756217001681211e-02 9.5592300395458685e-01  -6.0348338749179287e-01 -1.0462108436599163e-01 -7.9048227666881610e-01  -3.4938828358681168e-01 1.7496099964622408e-01 9.2049794996787238e-01  -9.9125713176471353e-01 -1.0726428274870967e-01 -7.6835358865551470e-02  -6.7800119858281171e-01 1.3252012902170646e-01 -7.2301645218095900e-01  -5.0117796786488623e-02 2.2830097233650790e-02 9.9848234491430554e-01  -3.6549363672316759e-01 1.0642452563079914e-01 9.2470980413269799e-01  -1.5201191966574101e-01 1.4296444549358238e-02 9.8827525920301340e-01  4.1680535947664088e-01 -3.6729676485267582e-01 -8.3148444293342394e-01  6.2437393986145162e-01 -4.8043147545333997e-01 6.1590809429298399e-01  2.4337170715028872e-01 -3.8914174940380636e-01 8.8844747229630816e-01  -3.8621954623050342e-01 2.8517762810288499e-01 8.7721615496929639e-01  -1.7384882499960633e-01 1.0334241475352450e-01 -9.7933494339738880e-01  7.9468221671274575e-01 -1.8990272003311123e-01 -5.7655626903585244e-01  8.8160386390507009e-02 -4.2172896539425121e-03 -9.9609736509010571e-01  3.4702607899189503e-01 -1.1440661155165903e-01 9.3085123823991278e-01  3.7796627570340224e-01 -1.5312478181148190e-01 9.1306861496060954e-01  -5.8878729221114823e-01 6.9259717130564424e-01 4.1669975141591353e-01  3.6436972876603396e-01 -1.5262274769300631e-02 9.3112929484998652e-01  7.1867143155432789e-01 -2.6556316822356374e-01 -6.4264109513064616e-01  1.6220744184057759e-01 7.6359926817212598e-02 9.8379769637258530e-01  9.7186438380999690e-02 9.1411934953689641e-02 9.9105935964645353e-01  -6.5673824716526497e-02 -2.8839236086474040e-02 -9.9742430650603842e-01  7.3514441642691097e-01 2.4926103385525364e-01 -6.3042178261680226e-01  -7.8086854452560539e-01 2.9267735691232194e-01 5.5189154815169972e-01  6.7364055710564130e-01 -7.1676297180765114e-01 -1.8016448614492681e-01  5.9106109658994155e-01 -4.5721308450960019e-01 6.6453214779355341e-01  9.7915618666683454e-03 4.6738123475168686e-01 8.8400164406985116e-01  1.3475177592541709e-01 6.1517484695514983e-02 -9.8896792564859415e-01  5.7142506157013806e-01 8.1838954991305857e-01 6.0925722011850307e-02  -2.2537631073734596e-01 -6.4095372290919758e-02 9.7216115012343074e-01  3.6517443109342618e-01 2.7822707307710526e-01 -8.8839030312275447e-01  -4.1702658561328215e-01 7.5976972413161303e-01 -4.9883744164276650e-01  -1.0937460702883170e-01 5.9638237710061381e-01 -7.9521396845195680e-01  3.4453575874062259e-01 9.3336199030862865e-01 -1.0065041478373882e-01  -4.5313185841541820e-01 -5.3363737282128632e-01 -7.1407469722528683e-01  -1.8686180824375159e-01 -3.4044760192427215e-01 9.2150859733585111e-01  -7.7742258551757301e-02 -6.6384241956868262e-02 9.9476091281025092e-01  -2.2651896622855529e-02 -3.5706462330141790e-02 9.9910557006116907e-01  3.3825989329088423e-03 4.3305067558925181e-01 9.0136322889063525e-01  2.0586170694050149e-01 -2.1341531205748163e-01 9.5502610550442590e-01  -1.3580749260385169e-01 8.1484495562311010e-01 5.6354593712334267e-01  -1.1466146049727040e-02 2.7027126675866980e-01 9.6271593414642842e-01  1.3580749260385178e-01 8.1484495562311110e-01 5.6354593712334122e-01  -4.3347060308057167e-01 -2.2396269370330996e-01 8.7289400736522582e-01  -4.0967937719639393e-02 -2.1779315107903399e-01 9.7513474526450183e-01  2.0498320155878041e-01 -9.1271530519901134e-01 3.5345814283191718e-01  -7.0299547676765722e-03 8.7862856421166513e-01 4.7745410867151650e-01  -5.5178286192934323e-01 -8.2806977038354401e-01 -9.9177258774418714e-02  2.1099803256087904e-01 -9.7292635239279490e-01 -9.4308764571959774e-02  -3.3923256765257292e-01 4.8832185135360784e-01 8.0402924980029644e-01  -1.9066000559955329e-01 2.8460180018261078e-01 -9.3949485235289909e-01  -4.6133118942187842e-02 3.9934697073387836e-02 9.9813674178757827e-01  3.0071102896581620e-01 1.4811520882863566e-01 -9.4214370558422222e-01  -6.6836417862492892e-01 -4.2694284431205459e-01 6.0910518994813756e-01  2.0080714340626604e-01 -9.7646190098245367e-01 -7.8731487263662803e-02  -9.2356146657753505e-02 3.8496409793158132e-01 -9.1829896301708591e-01  -1.7489634704899867e-01 -6.8643744843889609e-01 -7.0584339422396947e-01  1.6903430207648257e-01 -2.5250353370630579e-01 -9.5271683630937520e-01  -5.4030041525309568e-02 5.8219269550316877e-01 8.1125361010939601e-01  -2.2544571654723150e-01 9.8199847467769816e-02 -9.6929408274672346e-01  3.9574442838877766e-01 -1.8870745768401739e-01 8.9876350772251223e-01  5.3693981984540706e-01 -9.4964805612979888e-02 8.3825850163256366e-01  9.2584384101838624e-01 3.7194551932902092e-01 6.6855909980988670e-02  3.8429790200523611e-01 1.5600091249693607e-01 9.0993342493530660e-01  4.8715747921177688e-01 3.7840157478682018e-01 7.8707676795016746e-01  -1.9693015940784112e-01 -6.8321982896094324e-01 -7.0315658116111079e-01  5.5779007896082677e-01 -4.3471319864269958e-01 -7.0703229257135591e-01  7.2170111166253448e-01 -5.3578230361913581e-01 4.3827483221562480e-01  -5.0434614718107351e-01 5.4134517427622986e-01 -6.7274093536178181e-01  -7.2817281745675255e-01 6.4780667109230461e-01 2.2385456172569149e-01  -1.6775250329659736e-01 2.3387712463267138e-01 9.5768501513351401e-01  -5.4959888671235202e-01 3.4529106715359531e-01 -7.6073329273042500e-01  -4.2589787688952335e-01 5.5247253169929034e-01 -7.1650896727031477e-01  3.5643312665404686e-01 5.1628889956846602e-01 -7.7871766283165988e-01  5.9606938779142180e-02 7.0293171563055756e-02 9.9574388417955473e-01  9.1935020070763276e-02 1.4575432123671478e-01 9.8503991285907444e-01  8.9726884052895237e-03 -1.1162921111957274e-02 -9.9989743476770143e-01  -5.7776333594373504e-03 -1.5965748545400135e-01 9.8715556336945665e-01  2.2513264370644712e-01 -7.5464850764494007e-01 -6.1629613226679492e-01  3.9564790422265683e-03 -2.5551122006700160e-02 9.9966568733641503e-01  1.7204566594790156e-02 -3.0163035483369011e-01 -9.5326970576599546e-01  3.7777965575741868e-01 4.5816836933047844e-01 8.0458950840839116e-01  4.8485810872612267e-01 3.6023442334924266e-01 7.9695907965011981e-01  1.1272719866187064e-01 1.1360213618537321e-01 -9.8711049702450593e-01  7.9703220062498714e-01 -3.2365143949323905e-01 5.0989157365154048e-01  -7.3434995880330378e-01 2.6438522433892553e-01 6.2516445129009213e-01  8.6846632905104360e-01 -4.7936238765216044e-01 -1.2640386310957602e-01  4.3446095326927742e-01 -2.6666268820985212e-01 -8.6031081058013326e-01  -4.1187865389264910e-01 7.9276803276773522e-01 4.4930481934779465e-01  -6.8575939946343145e-02 -4.2472998672867357e-02 9.9674138313015281e-01  -5.4374224000472360e-01 -6.5745923920873861e-02 -8.3667308425838360e-01  3.9925782987014763e-01 2.5999999475074043e-01 -8.7920031165656165e-01  9.9512920661234938e-01 -9.1856412228921699e-02 -3.5780744535385198e-02  8.4962898934394304e-01 3.8518472095393325e-01 -3.6022674971471835e-01  3.1659083676472161e-01 7.5312524395576519e-01 5.7669108627859211e-01  1.0497501352131636e-01 3.3068531335813511e-01 9.3788457182396989e-01  9.9198263547324569e-02 7.5741848833118153e-01 -6.4535024447450495e-01  -3.5599612265517977e-01 7.3389606030974575e-01 5.7850093631411892e-01  -5.8383358605376534e-01 -7.7880858181346835e-01 2.2933716813742797e-01  9.9209643102784539e-01 9.3061731925291644e-02 -8.4167604176883903e-02  -8.0104891091148100e-01 3.4962064393017289e-01 4.8588686714643908e-01  -2.2248313496532673e-01 7.2218816303874822e-01 -6.5493931919126569e-01  4.2643336395070947e-01 -9.0202509787533591e-01 6.7121597959766230e-02  1.1193757265473984e-01 -3.8134494177937300e-01 9.1763065293583757e-01  -3.8453262945882472e-01 2.9232064700924554e-01 8.7560453185989062e-01  1.7028157697583249e-01 -1.1860372263818174e-01 9.7823174223646459e-01  -2.2741890823860050e-01 6.4566307363562114e-01 -7.2897176592716229e-01  -2.1958959928226351e-01 2.0819328439849785e-01 9.5311907137483154e-01  -1.1772174540128020e-02 2.3290139589196471e-02 -9.9965943465988083e-01  -3.5168751443856922e-01 5.1857841055811882e-01 7.7935378634548014e-01  -6.5514048977986428e-01 6.9233761911030478e-01 3.0242281629479301e-01  9.7892665565880521e-01 -6.8269227564406190e-02 1.9246276369320456e-01  -1.7592657218505164e-01 -3.6142856953250944e-02 -9.8373956669968021e-01  -3.3499563513027225e-01 5.0680138316332855e-02 -9.4085569989446460e-01  -5.8330077912979550e-01 -6.7600663044850382e-03 -8.1222810993595418e-01  -6.4615749850539483e-01 -4.6271441593194046e-01 6.0693974693870056e-01  -7.0770428607332847e-02 -3.5369336722964434e-01 -9.3268030343333097e-01  -3.9435538586658998e-02 -1.3663156241245034e-01 9.8983668069490782e-01  -8.0963540394486477e-01 -2.1469480491932635e-01 -5.4625694816605119e-01  -8.8919433445890081e-02 -4.3577974438201758e-02 9.9508506897627869e-01  -6.9276687321935637e-01 -3.9241242323791919e-01 -6.0505086518277151e-01  -2.1824746558542002e-01 -7.6939132049089129e-02 9.7285580315125519e-01  8.9327655026595465e-01 8.3965451340739308e-02 -4.4159575148103641e-01  1.5505460242035957e-01 -9.2786445161622710e-02 9.8353888884097174e-01  8.7884810420396822e-02 1.5178455929532696e-02 9.9601499716267639e-01  4.2020254778440222e-02 2.6963801903412046e-02 9.9875284809369558e-01  4.0674534297404008e-01 -4.0457682357100580e-02 9.1264527715165567e-01  -5.8945942473097079e-01 -4.2215190689096233e-01 6.8871282411768497e-01  -8.5318757801333100e-01 -4.0547547375509518e-01 -3.2811674280174657e-01  -3.5168641869363670e-01 -3.0423864372596343e-01 -8.8529967274942012e-01  -6.9015055783294665e-01 -5.0396837245094539e-01 5.1933427298033941e-01  -2.6369232612499083e-01 6.7036612126235662e-01 6.9359615094553029e-01  -3.6055764772492437e-03 7.7550211960635801e-02 -9.9698192784178752e-01  8.8639363747617106e-01 -3.4299777985966756e-01 3.1090005219218175e-01  -2.6283256849475484e-02 8.9503810899226086e-02 9.9563962267674944e-01  -6.1688539389902797e-01 -7.2128766175933778e-01 -3.1495479006960370e-01  -5.1472324020997340e-01 -7.7566192438855019e-01 3.6525137240207212e-01  8.4928835714042272e-01 -3.7306657527742071e-01 -3.7353797241578868e-01  7.1161353254040749e-01 2.5685115377861439e-01 6.5393704980522160e-01  -8.2511590018845871e-01 1.0965230268599850e-01 -5.5422028451857253e-01  1.8096670013572591e-01 6.6248832154931214e-02 -9.8125539268841422e-01  6.5978695094405815e-01 -8.7212204286790981e-02 -7.4637471204977324e-01  -1.6643857628666497e-01 -5.4863872422868210e-01 8.1932518001120425e-01  -2.0661733506218674e-01 -6.9814036576361094e-01 -6.8549931184739454e-01  7.7423911587667427e-02 4.8747164153545040e-02 9.9580583042149962e-01  4.7995319912802087e-01 -8.6163256468781890e-01 1.6502802827480545e-01  9.7420040290552762e-02 -3.0684423146920170e-01 9.4676076881325311e-01  2.3190814293996970e-01 -9.6869726933547462e-01 8.8567565282836949e-02  3.8400957175038075e-01 -5.4946731187389475e-01 7.4203929948902658e-01  6.9291177233223900e-01 -5.1924553059540857e-01 -5.0025728852270412e-01  3.5211266966287952e-01 5.5594020082461970e-01 7.5295893710743700e-01  5.8149229636515265e-01 5.3132275636051984e-01 -6.1608671292395278e-01  -1.5357379669829170e-02 -1.6917044261899175e-02 -9.9973894817753184e-01  3.6437868485822006e-01 -1.2274285453473374e-01 -9.2312640828960102e-01  7.1223300810032064e-01 -6.2508122018457946e-01 3.1937064728137721e-01  1.9015609913582848e-01 -6.1682656637973443e-01 -7.6378376846436846e-01  -1.3607488027959018e-02 6.1121194664559925e-02 9.9803759239436762e-01  -5.1852548300982890e-02 4.8831247040828291e-01 8.7112699675676109e-01  -1.9237411711570149e-01 7.2644370374456113e-01 -6.5975127461327321e-01  6.3820440086470431e-01 4.5269595709946181e-01 6.2270499688273417e-01  -4.3483552978238926e-01 -1.0578685968394820e-01 8.9427467947889339e-01  5.7727882307987388e-01 6.8081353136493203e-02 8.1370393250777640e-01  -7.1745225599652707e-01 2.0684062391783559e-01 -6.6519111288619470e-01  3.9136461211388696e-02 4.4379145882145238e-01 -8.9527508536816580e-01  1.7345385242609523e-01 2.5522465898047042e-01 -9.5119615985707651e-01  3.0244924568169368e-01 6.8732906490076917e-01 -6.6038110991245713e-01  -5.2778344473702710e-01 -7.6792799024355496e-01 3.6294798148221169e-01  4.1419418214084452e-01 -4.8402353140350025e-02 -9.0890065006641607e-01  -9.4952386877432948e-01 -2.7951822207240251e-01 1.4238674853129113e-01  7.3454491689122339e-02 3.2756737202358199e-01 -9.4196818122283565e-01  5.2087090217105808e-02 -3.7292020052495123e-01 -9.2640026936154618e-01  3.5260756654791475e-01 9.3544521527999147e-01 2.4701279783204418e-02  8.4920483272369818e-01 5.0544075108515896e-01 1.5290781281931373e-01  -2.1951829420706612e-01 -8.1312932702562324e-01 5.3910334448904784e-01  1.1217662804855401e-01 3.2520862781131271e-01 9.3896525628839933e-01  2.8089215816334412e-01 -1.6479413213064592e-02 9.5959784515310997e-01  4.0149584327340376e-01 8.0890519941575076e-02 9.1228165147489404e-01  -2.0353451100602654e-01 -6.7617413167983886e-01 -7.0806937970551564e-01  -5.7961054789433475e-01 -3.8640703192955655e-01 -7.1745468041195448e-01  -9.2024640420354031e-01 -1.4914095984498180e-01 3.6180592815343954e-01  -3.0036665577166877e-01 9.0109996731500630e-01 3.1272787052873674e-01  -6.7129697057129722e-01 -1.9763453002116094e-01 7.1435353281488978e-01  5.7425908258522707e-01 9.6535437094947399e-02 -8.1296212424273551e-01  6.1897335819483124e-01 -2.7021228288409667e-03 -7.8540733404853746e-01  3.0420380072510378e-01 -7.6150582153839008e-01 5.7233637957720551e-01  -3.0477086425405708e-01 -6.8452439665413101e-01 6.6222433561983585e-01  -9.7511770734780331e-02 -2.2444037071360193e-01 -9.6959681030937217e-01  4.6736771596278548e-01 3.8015725452405658e-01 7.9815279233268410e-01  -5.2036508102983337e-01 -3.8226685601628785e-02 8.5308786355962729e-01  4.8516945798003058e-02 1.6524802060892138e-01 9.8505796664727663e-01  -1.2089020163689507e-01 2.4178040327379013e-01 9.6277089473090860e-01  3.7399146834415337e-01 -7.6208072163165286e-01 -5.2854834719556498e-01  8.6862896609162910e-01 -1.8187841167524282e-02 4.9512919697817492e-01  -2.7144287345223744e-01 8.0815790273432031e-01 5.2268496314707347e-01  6.1218001304294931e-17 9.9976583202466685e-01 -2.1639803973825613e-02  2.1923196955524821e-01 9.5310551206062233e-01 -2.0863179624540831e-01  -4.6838354852932579e-01 2.4817810545767729e-01 -8.4795311158018327e-01  -8.3678374689091239e-01 5.2543211019639324e-01 1.5399369634426832e-01  -4.5141785912160150e-02 -4.6260327016194964e-03 9.9896987891833067e-01  1.3268654571025315e-01 8.1781668074201086e-01 -5.5997335408713955e-01  3.3720849990930835e-02 1.5788980704253222e-01 9.8688079984766197e-01  5.2895619633249191e-01 -8.4835470504251009e-01 2.2352556759749214e-02  4.1958591280498787e-02 -7.8086566279391489e-01 6.2328829067067837e-01  2.8538483973852158e-01 -8.9425412437962193e-01 3.4476811667765067e-01  4.1409246439279672e-17 -6.7626431503532936e-01 -7.3665906375323775e-01  6.1942539140178532e-01 7.3206229786291976e-01 -2.8354360605453061e-01  2.0269503963941762e-17 2.7866988080298090e-02 9.9961164007595094e-01  -7.6958640221879226e-01 4.9729335367977517e-01 4.0054474145325802e-01  5.5816269234610076e-02 -3.6190201487587774e-02 9.9778495348698126e-01  4.3719421085260418e-02 -1.6913512155633227e-02 9.9890066839828018e-01  -8.2710910821812123e-01 -5.3770220446905215e-01 -1.6360581411351421e-01  -3.7994526661360474e-02 -1.0160992597535683e-01 -9.9409850562560531e-01  -5.9267339516616481e-02 -9.9065122467727396e-01 -1.2287202086740247e-01  3.3399921265645283e-02 -6.8002893245092588e-01 7.3242412322991024e-01  9.6315826096280011e-01 2.2979271068671384e-01 1.3971927016115895e-01  -8.6244941426227895e-01 3.4497976570491129e-01 3.7036464341623698e-01  -4.0734802142188981e-01 4.4607045022098213e-01 7.9692455281746843e-01  9.0942476616674220e-03 -1.2568557987593425e-02 -9.9987965576342275e-01  3.3518928637776647e-02 9.4019118633438259e-02 9.9500597322547124e-01  -5.3769871791070079e-01 5.1131942608936354e-01 -6.7039729508764623e-01  -1.8225725130832671e-01 -5.5247156488749327e-01 -8.1336182866931839e-01  -4.5079666363679804e-03 -6.6018977529494871e-02 -9.9780818439355645e-01  5.1740462251571306e-02 -9.4317829910732431e-01 -3.2823409429705552e-01  2.5265339759705785e-01 -2.3172056831041274e-01 9.3939972264449934e-01  1.1008895585543767e-01 -1.6607340920617764e-01 9.7994900099612170e-01  1.9620238346893189e-02 -4.3224811850359368e-02 9.9887269553617897e-01  6.0417688644404133e-01 3.0208844322202066e-01 -7.3736887807831963e-01  3.1937664386425074e-01 6.5840065528736980e-01 6.8154760396554070e-01  -2.6669413769087873e-02 3.8922867389314546e-02 9.9888625616904303e-01  -1.9393075181362018e-01 1.0115561542657045e-01 9.7578604466792607e-01  8.2090458616317405e-02 -9.2135823366906811e-01 3.7994757777143107e-01  -6.9504138949671201e-01 1.3457245980199831e-01 -7.0626320869015913e-01  6.3873071411009374e-01 6.7859771598383717e-02 -7.6643207543201441e-01  5.2132420513704869e-01 7.7474554157002828e-01 -3.5775748623276643e-01  -5.1182492411892100e-01 1.2112250615526783e-01 8.5050842767918999e-01  3.8560586172408290e-01 -5.2661125306418122e-01 -7.5762042445422517e-01  1.9501693236033533e-02 -2.8066493681810820e-03 9.9980588449971219e-01  1.6673887705772511e-01 6.6473530234935518e-01 7.2823425124614960e-01  -8.2620068555880943e-02 8.5129726037738584e-01 5.1813791479274973e-01  4.9529672554331154e-02 -5.4482052160577457e-02 9.9728557471219492e-01  -2.1441994209516178e-02 -1.3945253909967761e-01 9.8999658091478882e-01  7.6555725142749886e-01 6.4186551500266165e-01 -4.3940362278221276e-02  -5.1097318086549948e-01 8.3814063441576681e-01 -1.9085776216158834e-01  -8.7114742110022092e-01 -1.24689548