<?xml version="1.0"?>
<VTKFile type="UnstructuredGrid"  version="0.1"  >
<UnstructuredGrid>
<Piece  NumberOfPoints="125" NumberOfCells="371">
<Points>
<DataArray  type="Float64"  NumberOfComponents="3"  format="ascii">1.360376673991998 -0.7172441404657289 0.1507094572883026  -0.001207979149011384 -0.001507732678814877 -0.0002731671614233377  -0.003758450596369649 -1.167842547928094 1.000017659881657  1.373445131995406 -0.00232112982860655 1.157369961117353  0.4363873584446604 -0.7670901064114917 -2.861957332670483  1.107592992191345 -0.6899222009268338 -1.168670874328795  0 -1.664100474227851 -2.496150959312085  1.352436771440294 -1.091131311287195 -2.427437457595861  1.483229990537448 -2.507222770738284 0.6268056926845711  0.1860062976910952 -1.46027880065126 -0.525856015534848  0.9658883412716295 -2.803774214301769 -0.3642898795061189  0.4388802236713559 -2.888711834124966 0.6297410003776063  -0.4365798756007569 -2.664687098062823 -1.301153800042547  0.1413384376415293 -2.32688584211316 -1.860196521262245  0.9733285267845755 -2.433321316961438 -1.459992790176863  -1.208929912440483 -0.7674096228783238 -0.9989401807504603  -1.983887510745432 -1.599536961667127 -1.561533081862706  -2.42042664348236 -1.643382564350088 -0.5674303548246021  -2.529824508604385 -0.9480695407383536 -1.26974657876316  1.838359916374881 0.1733060696086924 2.342863971005405  2.504919535552512 -0.2055593886968805 1.60804828312727  1.865569176475005 -0.9004443800813351 2.14216141875192  -2.436220975191798 0.7342844866760319 1.551518590718724  -2.857502755554282 0.6744554898853066 0.5512431909516169  -1.534344559705458 -0.1278056175684062 0.04725195420808859  -2.873802486736101 -0.228467922571504 0.7985422640053874  -0.1761736950898999 -2.972375429470082 -0.2927111864041865  -0.9831550215569825 -1.342772188762488 0.108981105234216  -1.051037448944506 -2.706386159139703 -0.683633672179072  -1.035479145753237 0.9535347339747686 -2.632809004132511  0.2757630235064476 1.160153906149 -2.736900138033899  0.2792861742003354 1.067367089581614 -1.431680833189215  0.03003989348300771 0.1816130327597026 -2.98827757035647  1.256395136266931 0.618603826090794 -0.6859671822152149  0.9999999999999998 2 -2  1.997083180821995 0.9359349593769619 -2.022740310313121  -1.159728927790549 -2.252748259252104 -1.561902473763021  -1.167027024973626 -1.064147789718023 2.524082206445122  -1.321105698862549 -1.810117734523184 1.95442106954686  -0.1808261918465984 -1.708168818544533 2.443944021890237  -0.4423258684646916 -1.326977605394074 -2.653955210788149  -0.1376738456343934 -0.313150606280098 -1.504474694589589  -2.467659467443583 -0.4863077623579882 1.601822829207449  -1.125395732195269 -0.5946143609684584 1.154173454797461  1.643373105676509 -1.933552802648145 1.568031645950611  0.7514553899198082 -0.2693596135449968 2.882915328322209  0.2222542758876913 0.2609618776162325 1.518053668133875  -0.8855013579347146 0.8060449331602145 -0.8957704160439869  0.6417914600488148 -2.418449427872384 1.616599276162667  -0.9250340305839946 -2.781365184578334 0.5641798964893733  0.9145120833948928 1.952048003809653 2.069152451169806  1.019608131535332 1.065935183812661 0.6491584980693623  1.15570152445149 2.511541942951455 1.103403496931686  1.705083173396676 1.726553696158116 1.713320684720474  1.928150548304146 -1.809961181546651 -1.357145115474483  1.569743137359311 -2.398760859686763 -0.8337571224844245  -2.651513144367549 0.9147013244573027 -1.030817778927573  -2.960738954818831 0.2997029679642988 -0.3417891829664583  -2.70749249323308 1.257027792587498 -0.163439898724838  1.063260408794635 0.08793935777182915 -2.792454645720439  -0.2859456394128459 1.497178831201039 0.264071132505953  1.446294705835676 2.518932217203173 -0.6729556509793617  -2.0245066535726 0.5311334684032065 -2.120573587417978  -1.664102178189518 -0.1349765429057128 -2.478289080969866  -1.97243450644859 -1.835655576486271 1.261713475948651  -0.7005774829667897 -1.931033902027896 -2.161615685864934  -2.696465941070746 -1.125885319144706 0.5988250453391903  -2.870467394838546 -0.6563688642375416 -0.5042135762066295  -1.378391718152332 -1.225158412663848 -2.335573166612507  2.694742552308193 -0.3107321104555698 -1.258271147451916  2.142756638494586 -0.5150877454744686 -2.007288591874613  2.421635084679812 -1.202355195058031 1.251317744441848  2.89845916891429 -0.6666879008535322 0.2947005383886797  -0.4565714375053951 1.671677703052807 -2.430783455042217  -0.6231812694639079 2.322006379224643 -1.7667115025901  0.2922774708916649 2.489538860891511 -1.614134669734949  -0.369274472937998 0.3692744729379982 2.954195783503986  -0.2149962064996033 -0.7340446747608187 2.891093139672575  -2.669262290022567 -0.0744414935360391 -1.336819515711224  -1.164499826598824 0.010662172868464 2.762654887529511  0.1482673304363238 2.350354385110026 1.831060909272224  -2.113802129970176 -0.6500156689784033 -1.994492678180483  2.155053340782015 -2.050212664719633 -0.2263055832447174  2.343948953255366 1.565554449262567 0.9871077045742207  2.625852863321914 1.418497346652122 0.05955181473830258  2.857738033247041 0.4082482904638635 0.8164965809277263  -1.069879905414644 0.6726420538533731 1.116704441286245  -1.787262503682394 -2.38946587816059 -0.09499840828113738  -1.781253943194071 -2.190747967927585 -0.9479580756726718  0.9733285267845753 -1.459992790176863 2.433321316961438  -1.771192539425288 1.631801371309245 -1.741963643540732  -1.836418834368594 -0.3896503408297984 2.331437079373215  0.02754781932244434 1.760613891455564 2.415371254685072  0.6834342133639989 1.273858075934344 2.606858706345227  1.196506339969253 0.9994556958645178 -2.539892240724458  -2.482921170366545 1.496288023376994 0.6892557059780164  -2.191499913384674 2.030406575272324 -0.0723223845949066  0.5863287101476113 2.833637916064796 -0.7361173888122884  -0.6603034068820061 -2.409100664562771 1.623838269590993  -1.972653430176731 -1.185937572766756 1.891001797970701  -1.676961329251449 -2.359645652924934 0.7119089262811071  -0.3387481577730915 2.798877677633111 -0.9852247556326776  2.645388270346836 -1.131553028587344 -0.7773408179118486  2.987199520941072 0.1728812309444615 -0.05823634461397397  1.540167920126471 1.051781244980174 2.328407021846957  -0.9124246267026626 -0.2300739071859287 -2.835348820042864  -1.439742430589062 2.405910098876304 -1.041315637648888  1 -2 -2  -0.7852211001618044 1.552901871950088 2.422301655050573  2.188196314407603 -1.905521795910451 0.6908001742049479  0.9878724167873492 2.818041466283388 0.0845210588831915  -2.229721357853367 1.732426063583297 -0.9461096906408208  -1.731022347527684 0.5736975662526456 2.363008245139032  2.329395581075775 0.8456003675500394 1.652622433405944  2.804878355855282 0.5524532675817881 -0.8706399895431773  -2.282212275596833 -1.888275851254785 0.4368873934773  -0.889449726370831 2.844660429944702 -0.2018591399226457  -0.05559178170295358 2.985461133287813 -0.2069130382160448  1.787864321425123 2.384556922373966 0.1683790467524401  2.007612443352661 1.925332932883518 -1.091444459629994  -1.225898953115591 2.033205723157103 1.79851111224297  -0.9833478155685613 2.580062756525876 1.123144743821948  -1.979570976521522 1.71200688041857 1.420604793927053  -1.542889057374762 2.523652793625724 0.3799787452989516  0.2309988717533323 2.920589525015334 0.586073042132943  </DataArray>
</Points>
<Cells>
<DataArray  type="UInt32"  Name="connectivity"  format="ascii">0 1 2 3  4 5 6 7  8 9 10 11  9 12 13 14  15 16 17 18  3 19 20 21  22 23 24 25  9 10 12 26  9 26 27 28  29 30 31 32  31 33 34 35  9 27 28 36  2 37 38 39  4 6 40 41  24 25 42 43  0 2 3 44  3 19 45 46  1 15 41 47  1 31 33 41  2 8 11 48  9 11 27 49  50 51 52 53  5 14 54 55  24 56 57 58  31 32 41 59  31 33 60 61  15 47 62 63  1 9 15 41  27 38 43 64  9 12 36 65  24 25 66 67  29 41 47 63  17 24 66 67  40 41 65 68  33 35 69 70  3 20 71 72  31 73 74 75  45 46 76 77  15 18 67 78  43 46 77 79  9 10 14 55  51 52 60 80  15 62 63 81  8 10 55 82  50 51 52 80  1 31 33 60  5 33 35 70  51 83 84 85  46 76 79 86  17 27 87 88  2 44 48 89  0 5 54 82  29 47 62 90  51 52 53 83  15 17 24 27  37 43 79 91  9 12 26 28  23 24 57 58  27 28 36 88  46 76 92 93  31 47 73 74  30 31 59 94  37 43 77 79  24 56 57 78  24 58 95 96  22 24 25 42  31 60 61 97  4 5 6 41  1 24 43 86  15 16 17 88  29 47 73 90  2 38 39 98  29 31 41 47  47 73 74 90  37 43 91 99  27 49 87 100  31 60 97 101  3 20 72 85  5 54 70 102  17 24 27 66  2 9 11 27  2 8 44 48  24 25 57 67  3 33 85 103  2 37 38 43  8 9 10 55  31 34 61 75  5 31 33 41  0 1 33 51  46 76 77 79  9 10 12 14  23 24 25 57  8 9 55 82  19 45 46 104  29 32 41 105  46 50 92 93  47 74 90 106  38 43 64 99  6 9 13 107  6 9 13 65  9 12 28 36  9 12 13 65  0 1 2 9  1 31 41 47  46 76 92 108  9 26 27 49  0 44 71 109  51 52 60 110  47 56 58 111  25 42 43 66  24 27 43 66  9 13 14 107  9 10 11 26  0 1 5 9  15 27 36 88  2 39 48 89  5 31 33 59  5 31 41 59  0 3 71 72  3 46 51 104  2 39 77 89  6 40 41 65  9 11 26 49  42 43 66 99  1 15 24 47  3 45 46 89  9 15 27 36  5 33 35 59  42 43 86 91  42 43 91 99  43 79 86 112  3 21 44 89  2 3 46 89  3 19 20 113  0 5 9 55  46 50 51 80  0 3 85 103  1 2 3 46  15 17 18 67  15 17 24 67  5 9 14 107  0 5 54 102  23 24 58 95  46 51 60 80  0 71 72 109  33 35 69 114  0 2 8 44  29 30 31 73  31 47 74 101  3 83 85 113  3 51 83 85  15 18 78 81  1 24 27 43  27 43 66 115  15 62 78 81  4 40 41 105  46 50 80 92  60 101 116 117  27 87 100 115  2 3 44 89  1 3 46 51  0 3 33 103  0 3 33 51  0 1 3 51  15 16 36 88  15 36 65 68  15 16 36 68  15 16 68 81  6 9 41 65  3 20 85 113  33 51 60 61  24 86 95 96  2 11 48 98  1 2 9 27  51 52 110 118  29 47 62 63  27 28 49 87  2 27 49 98  30 31 32 59  41 63 68 105  27 28 87 88  3 33 51 85  31 33 59 94  2 39 48 98  24 42 43 86  5 35 59 70  43 79 91 112  50 51 53 104  60 97 110 117  27 38 98 100  1 33 51 60  43 86 91 112  15 41 47 63  46 86 92 108  60 97 101 117  33 34 35 119  33 35 114 119  33 84 85 103  30 31 34 73  86 120 121 122  60 86 120 121  86 121 122 123  5 7 59 70  4 5 7 59  0 5 69 102  0 5 33 69  46 60 80 92  0 1 5 33  60 86 121 123  29 31 47 73  3 21 45 89  5 33 69 70  15 17 27 88  31 34 73 75  29 31 32 41  47 60 86 96  0 2 8 9  86 95 96 123  60 86 96 123  86 95 122 123  79 86 108 112  60 80 121 124  60 80 120 121  4 5 41 59  1 5 33 41  47 58 96 111  5 9 14 55  5 6 9 107  51 83 84 118  51 52 83 118  60 101 106 116  9 15 36 65  46 50 93 104  45 46 93 104  31 47 60 101  47 56 90 111  0 72 82 109  33 51 61 118  46 76 86 108  0 8 44 109  3 51 104 113  27 43 64 115  26 27 28 49  31 33 61 119  22 86 112 122  22 86 95 122  24 25 43 66  43 46 79 86  1 46 51 60  1 2 27 43  47 56 62 90  47 56 62 78  3 19 21 45  1 24 47 86  27 38 64 100  51 61 110 118  31 75 97 101  22 23 86 95  22 23 24 86  23 24 86 95  24 47 86 96  60 80 86 92  17 27 66 115  17 27 87 115  2 37 39 77  31 74 75 101  47 60 101 106  33 35 59 94  24 57 67 78  3 20 21 71  33 61 118 119  1 2 43 46  5 6 7 107  3 19 104 113  45 46 77 89  0 3 44 71  3 21 44 71  47 90 106 111  30 31 34 94  47 74 101 106  0 3 72 85  47 96 106 111  47 60 96 106  37 38 43 99  5 7 54 70  3 19 46 104  5 7 54 107  5 14 54 107  1 46 60 86  2 11 27 49  1 47 60 86  86 112 120 122  2 46 77 89  15 24 67 78  2 27 38 98  43 64 66 115  1 43 46 86  46 50 51 104  15 41 65 68  51 53 83 113  51 53 104 113  2 11 49 98  9 15 41 65  31 34 61 119  46 60 86 92  76 79 86 108  2 37 43 77  60 61 97 110  2 27 38 43  15 63 68 81  60 116 117 124  60 116 121 124  51 60 61 110  80 86 108 120  1 9 15 27  0 8 82 109  4 32 41 59  4 32 41 105  43 64 66 99  0 72 82 102  0 69 102 103  0 72 85 103  0 72 102 103  31 33 35 94  31 34 35 94  27 64 100 115  15 16 18 81  0 54 82 102  22 42 86 91  15 47 62 78  22 24 42 86  1 31 47 60  80 86 92 108  60 80 86 120  52 60 80 124  86 108 112 120  15 41 63 68  24 47 56 78  2 43 46 77  24 47 56 58  31 33 34 119  2 8 9 11  0 5 55 82  0 33 69 103  31 61 75 97  33 84 114 119  40 41 68 105  29 41 63 105  3 51 83 113  33 69 103 114  33 84 103 114  15 24 47 78  27 49 98 100  52 60 110 124  60 110 117 124  60 116 121 123  60 106 116 123  60 96 106 123  33 51 84 118  33 51 84 85  45 46 76 93  5 6 9 41  1 5 9 41  24 47 58 96  5 69 70 102  0 8 9 82  5 54 55 82  0 9 55 82  22 86 91 112  33 84 118 119  1 15 24 27  </DataArray>
<DataArray  type="UInt32"  Name="offsets"  format="ascii">4 8 12 16 20 24 28 32 36 40 44 48 52 56 60 64 68 72 76 80 84 88 92 96 100 104 108 112 116 120 124 128 132 136 140 144 148 152 156 160 164 168 172 176 180 184 188 192 196 200 204 208 212 216 220 224 228 232 236 240 244 248 252 256 260 264 268 272 276 280 284 288 292 296 300 304 308 312 316 320 324 328 332 336 340 344 348 352 356 360 364 368 372 376 380 384 388 392 396 400 404 408 412 416 420 424 428 432 436 440 444 448 452 456 460 464 468 472 476 480 484 488 492 496 500 504 508 512 516 520 524 528 532 536 540 544 548 552 556 560 564 568 572 576 580 584 588 592 596 600 604 608 612 616 620 624 628 632 636 640 644 648 652 656 660 664 668 672 676 680 684 688 692 696 700 704 708 712 716 720 724 728 732 736 740 744 748 752 756 760 764 768 772 776 780 784 788 792 796 800 804 808 812 816 820 824 828 832 836 840 844 848 852 856 860 864 868 872 876 880 884 888 892 896 900 904 908 912 916 920 924 928 932 936 940 944 948 952 956 960 964 968 972 976 980 984 988 992 996 1000 1004 1008 1012 1016 1020 1024 1028 1032 1036 1040 1044 1048 1052 1056 1060 1064 1068 1072 1076 1080 1084 1088 1092 1096 1100 1104 1108 1112 1116 1120 1124 1128 1132 1136 1140 1144 1148 1152 1156 1160 1164 1168 1172 1176 1180 1184 1188 1192 1196 1200 1204 1208 1212 1216 1220 1224 1228 1232 1236 1240 1244 1248 1252 1256 1260 1264 1268 1272 1276 1280 1284 1288 1292 1296 1300 1304 1308 1312 1316 1320 1324 1328 1332 1336 1340 1344 1348 1352 1356 1360 1364 1368 1372 1376 1380 1384 1388 1392 1396 1400 1404 1408 1412 1416 1420 1424 1428 1432 1436 1440 1444 1448 1452 1456 1460 1464 1468 1472 1476 1480 1484 </DataArray>
<DataArray  type="UInt8"  Name="types"  format="ascii">10 10 10 10 10 10 10 10 10 10 10 10 10 10 10 10 10 10 10 10 10 10 10 10 10 10 10 10 10 10 10 10 10 10 10 10 10 10 10 10 10 10 10 10 10 10 10 10 10 10 10 10 10 10 10 10 10 10 10 10 10 10 10 10 10 10 10 10 10 10 10 10 10 10 10 10 10 10 10 10 10 10 10 10 10 10 10 10 10 10 10 10 10 10 10 10 10 10 10 10 10 10 10 10 10 10 10 10 10 10 10 10 10 10 10 10 10 10 10 10 10 10 10 10 10 10 10 10 10 10 10 10 10 10 10 10 10 10 10 10 10 10 10 10 10 10 10 10 10 10 10 10 10 10 10 10 10 10 10 10 10 10 10 10 10 10 10 10 10 10 10 10 10 10 10 10 10 10 10 10 10 10 10 10 10 10 10 10 10 10 10 10 10 10 10 10 10 10 10 10 10 10 10 10 10 10 10 10 10 10 10 10 10 10 10 10 10 10 10 10 10 10 10 10 10 10 10 10 10 10 10 10 10 10 10 10 10 10 10 10 10 10 10 10 10 10 10 10 10 10 10 10 10 10 10 10 10 10 10 10 10 10 10 10 10 10 10 10 10 10 10 10 10 10 10 10 10 10 10 10 10 10 10 10 10 10 10 10 10 10 10 10 10 10 10 10 10 10 10 10 10 10 10 10 10 10 10 10 10 10 10 10 10 10 10 10 10 10 10 10 10 10 10 10 10 10 10 10 10 10 10 10 10 10 10 10 10 10 10 10 10 10 10 10 10 10 10 10 10 10 10 10 10 10 10 10 10 10 10 10 10 10 10 10 10 10 10 10 10 10 10 </DataArray>
</Cells>
<PointData  Vectors="f_8"> 
<DataArray  type="Float64"  Name="f_8"  NumberOfComponents="3" format="ascii">1.0000000000000000e+00 1.0000000000000000e+00 1.0000000000000000e+00  1.0000000000000000e+00 1.0000000000000000e+00 1.0000000000000000e+00  1.0000000000000000e+00 1.0000000000000000e+00 1.0000000000000000e+00  1.0000000000000000e+00 1.0000000000000000e+00 1.0000000000000000e+00  1.0000000000000000e+00 1.0000000000000000e+00 1.0000000000000000e+00  1.0000000000000000e+00 1.0000000000000000e+00 1.0000000000000000e+00  1.0000000000000000e+00 1.0000000000000000e+00 1.0000000000000000e+00  1.0000000000000000e+00 1.0000000000000000e+00 1.0000000000000000e+00  1.0000000000000000e+00 1.0000000000000000e+00 1.0000000000000000e+00  1.0000000000000000e+00 1.0000000000000000e+00 1.0000000000000000e+00  1.0000000000000000e+00 1.0000000000000000e+00 1.0000000000000000e+00  1.0000000000000000e+00 1.0000000000000000e+00 1.0000000000000000e+00  1.0000000000000000e+00 1.0000000000000000e+00 1.0000000000000000e+00  1.0000000000000000e+00 1.0000000000000000e+00 1.0000000000000000e+00  1.0000000000000000e+00 1.0000000000000000e+00 1.0000000000000000e+00  1.0000000000000000e+00 1.0000000000000000e+00 1.0000000000000000e+00  1.0000000000000000e+00 1.0000000000000000e+00 1.0000000000000000e+00  1.0000000000000000e+00 1.0000000000000000e+00 1.0000000000000000e+00  1.0000000000000000e+00 1.0000000000000000e+00 1.0000000000000000e+00  1.0000000000000000e+00 1.0000000000000000e+00 1.0000000000000000e+00  1.0000000000000000e+00 1.0000000000000000e+00 1.0000000000000000e+00  1.0000000000000000e+00 1.0000000000000000e+00 1.0000000000000000e+00  1.0000000000000000e+00 1.0000000000000000e+00 1.0000000000000000e+00  1.0000000000000000e+00 1.0000000000000000e+00 1.0000000000000000e+00  1.0000000000000000e+00 1.0000000000000000e+00 1.0000000000000000e+00  1.0000000000000000e+00 1.0000000000000000e+00 1.0000000000000000e+00  1.0000000000000000e+00 1.0000000000000000e+00 1.0000000000000000e+00  1.0000000000000000e+00 1.0000000000000000e+00 1.0000000000000000e+00  1.0000000000000000e+00 1.0000000000000000e+00 1.0000000000000000e+00  1.0000000000000000e+00 1.0000000000000000e+00 1.0000000000000000e+00  1.0000000000000000e+00 1.0000000000000000e+00 1.0000000000000000e+00  1.0000000000000000e+00 1.0000000000000000e+00 1.0000000000000000e+00  1.0000000000000000e+00 1.0000000000000000e+00 1.0000000000000000e+00  1.0000000000000000e+00 1.0000000000000000e+00 1.0000000000000000e+00  1.0000000000000000e+00 1.0000000000000000e+00 1.0000000000000000e+00  1.0000000000000000e+00 1.0000000000000000e+00 1.0000000000000000e+00  1.0000000000000000e+00 1.0000000000000000e+00 1.0000000000000000e+00  1.0000000000000000e+00 1.0000000000000000e+00 1.0000000000000000e+00  1.0000000000000000e+00 1.0000000000000000e+00 1.0000000000000000e+00  1.0000000000000000e+00 1.0000000000000000e+00 1.0000000000000000e+00  1.0000000000000000e+00 1.0000000000000000e+00 1.0000000000000000e+00  1.0000000000000000e+00 1.0000000000000000e+00 1.0000000000000000e+00  1.0000000000000000e+00 1.0000000000000000e+00 1.0000000000000000e+00  1.0000000000000000e+00 1.0000000000000000e+00 1.0000000000000000e+00  1.0000000000000000e+00 1.0000000000000000e+00 1.0000000000000000e+00  1.0000000000000000e+00 1.0000000000000000e+00 1.0000000000000000e+00  1.0000000000000000e+00 1.0000000000000000e+00 1.0000000000000000e+00  1.0000000000000000e+00 1.0000000000000000e+00 1.0000000000000000e+00  1.0000000000000000e+00 1.0000000000000000e+00 1.0000000000000000e+00  1.0000000000000000e+00 1.0000000000000000e+00 1.0000000000000000e+00  1.0000000000000000e+00 1.0000000000000000e+00 1.0000000000000000e+00  1.0000000000000000e+00 1.0000000000000000e+00 1.0000000000000000e+00  1.0000000000000000e+00 1.0000000000000000e+00 1.0000000000000000e+00  1.0000000000000000e+00 1.0000000000000000e+00 1.0000000000000000e+00  1.0000000000000000e+00 1.0000000000000000e+00 1.0000000000000000e+00  1.0000000000000000e+00 1.0000000000000000e+00 1.0000000000000000e+00  1.0000000000000000e+00 1.0000000000000000e+00 1.0000000000000000e+00  1.0000000000000000e+00 1.0000000000000000e+00 1.0000000000000000e+00  1.0000000000000000e+00 1.0000000000000000e+00 1.0000000000000000e+00  1.0000000000000000e+00 1.0000000000000000e+00 1.0000000000000000e+00  1.0000000000000000e+00 1.0000000000000000e+00 1.0000000000000000e+00  1.0000000000000000e+00 1.0000000000000000e+00 1.0000000000000000e+00  1.0000000000000000e+00 1.0000000000000000e+00 1.0000000000000000e+00  1.0000000000000000e+00 1.0000000000000000e+00 1.0000000000000000e+00  1.0000000000000000e+00 1.0000000000000000e+00 1.0000000000000000e+00  1.0000000000000000e+00 1.0000000000000000e+00 1.0000000000000000e+00  1.0000000000000000e+00 1.0000000000000000e+00 1.0000000000000000e+00  1.0000000000000000e+00 1.0000000000000000e+00 1.0000000000000000e+00  1.0000000000000000e+00 1.0000000000000000e+00 1.0000000000000000e+00  1.0000000000000000e+00 1.0000000000000000e+00 1.0000000000000000e+00  1.0000000000000000e+00 1.0000000000000000e+00 1.0000000000000000e+00  1.0000000000000000e+00 1.0000000000000000e+00 1.0000000000000000e+00  1.0000000000000000e+00 1.0000000000000000e+00 1.0000000000000000e+00  1.0000000000000000e+00 1.0000000000000000e+00 1.0000000000000000e+00  1.0000000000000000e+00 1.0000000000000000e+00 1.0000000000000000e+00  1.0000000000000000e+00 1.0000000000000000e+00 1.0000000000000000e+00  1.0000000000000000e+00 1.0000000000000000e+00 1.0000000000000000e+00  1.0000000000000000e+00 1.0000000000000000e+00 1.0000000000000000e+00  1.0000000000000000e+00 1.0000000000000000e+00 1.0000000000000000e+00  1.0000000000000000e+00 1.0000000000000000e+00 1.0000000000000000e+00  1.0000000000000000e+00 1.0000000000000000e+00 1.0000000000000000e+00  1.0000000000000000e+00 1.0000000000000000e+00 1.0000000000000000e+00  1.0000000000000000e+00 1.0000000000000000e+00 1.0000000000000000e+00  1.0000000000000000e+00 1.0000000000000000e+00 1.0000000000000000e+00  1.0000000000000000e+00 1.0000000000000000e+00 1.0000000000000000e+00  1.0000000000000000e+00 1.0000000000000000e+00 1.0000000000000000e+00  1.0000000000000000e+00 1.0000000000000000e+00 1.0000000000000000e+00  1.0000000000000000e+00 1.0000000000000000e+00 1.0000000000000000e+00  1.0000000000000000e+00 1.0000000000000000e+00 1.0000000000000000e+00  1.0000000000000000e+00 1.0000000000000000e+00 1.0000000000000000e+00  1.0000000000000000e+00 1.0000000000000000e+00 1.0000000000000000e+00  1.0000000000000000e+00 1.0000000000000000e+00 1.0000000000000000e+00  1.0000000000000000e+00 1.0000000000000000e+00 1.0000000000000000e+00  1.0000000000000000e+00 1.0000000000000000e+00 1.0000000000000000e+00  1.0000000000000000e+00 1.0000000000000000e+00 1.0000000000000000e+00  1.0000000000000000e+00 1.0000000000000000e+00 1.0000000000000000e+00  1.0000000000000000e+00 1.0000000000000000e+00 1.0000000000000000e+00  1.0000000000000000e+00 1.0000000000000000e+00 1.0000000000000000e+00  1.0000000000000000e+00 1.0000000000000000e+00 1.0000000000000000e+00  1.0000000000000000e+00 1.0000000000000000e+00 1.0000000000000000e+00  1.0000000000000000e+00 1.0000000000000000e+00 1.0000000000000000e+00  1.0000000000000000e+00 1.0000000000000000e+00 1.0000000000000000e+00  1.0000000000000000e+00 1.0000000000000000e+00 1.0000000000000000e+00  1.0000000000000000e+00 1.0000000000000000e+00 1.0000000000000000e+00  1.0000000000000000e+00 1.0000000000000000e+00 1.0000000000000000e+00  1.0000000000000000e+00 1.0000000000000000e+00 1.0000000000000000e+00  1.0000000000000000e+00 1.0000000000000000e+00 1.0000000000000000e+00  1.0000000000000000e+00 1.0000000000000000e+00 1.0000000000000000e+00  1.0000000000000000e+00 1.0000000000000000e+00 1.0000000000000000e+00  1.0000000000000000e+00 1.0000000000000000e+00 1.0000000000000000e+00  1.0000000000000000e+00 1.0000000000000000e+00 1.0000000000000000e+00  1.0000000000000000e+00 1.0000000000000000e+00 1.0000000000000000e+00  1.0000000000000000e+00 1.0000000000000000e+00 1.0000000000000000e+00  1.0000000000000000e+00 1.0000000000000000e+00 1.0000000000000000e+00  1.0000000000000000e+00 1.0000000000000000e+00 1.0000000000000000e+00  1.0000000000000000e+00 1.0000000000000000e+00 1.0000000000000000e+00  1.0000000000000000e+00 1.0000000000000000e+00 1.0000000000000000e+00  1.0000000000000000e+00 1.0000000000000000e+00 1.0000000000000000e+00  1.0000000000000000e+00 1.0000000000000000e+00 1.0000000000000000e+00  1.0000000000000000e+00 1.0000000000000000e+00 1.0000000000000000e+00  1.0000000000000000e+00 1.0000000000000000e+00 1.0000000000000000e+00  1.0000000000000000e+00 1.0000000000000000e+00 1.0000000000000000e+00  1.0000000000000000e+00 1.0000000000000000e+00 1.0000000000000000e+00  1.0000000000000000e+00 1.0000000000000000e+00 1.0000000000000000e+00  1.0000000000000000e+00 1.0000000000000000e+00 1.0000000000000000e+00  </DataArray> 
</PointData> 
</Piece>
</UnstructuredGrid>
</VTKFile>